! TOUCHSTONE file generated by CST MICROWAVE STUDIO
! Date and time: Wed Jul  1 12:37:51 2026
! Project name: EM_HEARD_LoRa.cst
! Header version: 2024
! Port assignment regex: !\s*Touchstone port\s*([0-9]+)\s*=\s*(CST MWS port|CST DES external port|CST DES block port)\s*(.+)\s* \(\"(.*)\"\)(\s*mode\s*([0-9]+))?.*
! Touchstone port assignment:
! Touchstone port 1 = CST MWS port 1 ("VR_PA")
! Touchstone port 2 = CST MWS port 2 ("RF_IN")
! Touchstone port 3 = CST MWS port 3 ("IPD_IN")
! Touchstone port 4 = CST MWS port 4 ("IPD_OUT")
! Touchstone port 5 = CST MWS port 5 ("ANT")
# MHz S MA R 50
1e-06            0.000100581610273  -9.84624849072   0.999899081971 -0.000987977709883  4.06055043133e-17  -4.64438386034  2.89237861583e-17   178.022800709
                 4.61196817512e-17   172.810209426
                  0.999899081966 -0.000987977709583  0.000100581293617  -9.84258086966  4.06099181108e-17   175.306990547  2.89235526182e-17  -1.96470898113
                 4.61191720306e-17   -7.2016933417
                 4.05979519806e-17  -4.60520808853  4.0606293178e-17   175.277812668                1 -8.05515684106e-05  1.82420777048e-22   121.234488375
                 2.31764768254e-22   122.271675815
                 2.89280559645e-17    178.01444035  2.89278260894e-17  -1.97322104337  1.82420567405e-22   121.234950735   0.999996185992 0.000219089488634
                 4.46062702987e-21   130.763371932
                 4.61165500416e-17   172.814007468  4.61161657678e-17  -7.19816724307  2.31764679373e-22   122.272627274  4.46062715375e-21   130.763366111
                               1 -0.000170784166944
1.02206171671e-06  0.000100650559241  -10.0697999562   0.999899081983 -0.00101082271879  1.0414912567e-10   89.9884066156  3.4314088297e-16   95.4364004986
                 8.57426554366e-16   94.2214732467
                  0.999899081978 -0.00101082271849  0.000100650190452  -10.0660508315  1.04182258712e-10   90.0001037595  3.40780429852e-16    85.792030312
                 8.44167785102e-16   88.0089150046
                 1.041491257e-10   89.9884066185  1.04182258735e-10   90.0001037566                1 -8.04282450213e-05  2.30734186803e-16   89.9921656546
                 3.67532375131e-16   89.9602309254
                 3.43145619551e-16   95.4370164699  3.40776302912e-16   85.7912841401  2.30734186789e-16    89.992165653    0.99999617073 0.00021966576384
                 1.08424943999e-09   115.064269231
                 8.57422938271e-16   94.2213085265  8.44170884415e-16   88.0091007106  3.67532375121e-16    89.960230926  1.0842494118e-09   115.064266962
                               1 -0.000170858532613
1.04461015276e-06  0.000100722610128   -10.297963558   0.999899081995 -0.00103417172784  2.10595963369e-10   89.9883947182  6.90660085182e-16   93.0037507079
                 1.72506239888e-15   92.6866100303
                  0.999899081989 -0.00103417172753  0.0001007221869  -10.2941314883  2.10662952947e-10   90.0000691351  6.88555916733e-16   88.2507467359
                 1.71188407455e-15   89.5802038948
                 2.10595963402e-10   89.9883947197  2.10662952972e-10   90.0000691336                1 -8.03026610416e-05  4.6655860814e-16   89.9921533388
                 7.43172949855e-16   89.9602216074
                 6.90664660794e-16   93.0040731371  6.88551603294e-16   88.2503925237  4.66558608113e-16    89.992153337   0.999996155009 0.000220257824742
                 2.16645394418e-09   114.028163388
                 1.72505885019e-15   92.6865249724  1.71188724765e-15   89.5802925895  7.43172949837e-16   89.9602216077  2.16645388731e-09   114.028161226
                               1 -0.000170934566629
1.06765604602e-06  0.000100797898345  -10.5308200303   0.999899082006 -0.00105803585613  3.19391201226e-10   89.9883748067  1.04626815916e-15   92.1885226785
                 2.61225984638e-15   92.1717412569
                  0.999899082001 -0.00105803585581  0.000100797418273  -10.5269035651  3.19492793511e-10   90.0000414962  1.04443152325e-15   89.0704435204
                 2.59917596245e-15   90.1017147989
                 3.19391201262e-10   89.9883748077  3.19492793538e-10   90.0000414952                1 -8.0174784774e-05  7.07585722805e-16   89.9921489308
                 1.12710080538e-15   89.9602188074
                 1.04627267889e-15    92.188739058  1.04442714946e-15   89.0702134169  7.07585722764e-16   89.9921489291   0.999996138814 0.000220866175842
                 3.24596610091e-09   113.028114613
                 2.61225632094e-15   92.1716843915  2.59917915946e-15   90.1017725749  1.12710080536e-15   89.9602188077  3.24596599691e-09   113.028112089
                               1 -0.000171012307058
1.09121037125e-06  0.000100876564965  -10.7684505619   0.999899082018 -0.00108242646807  4.30586648988e-10   89.9883524974  1.40982883016e-15   91.7803379356
                 3.51913743768e-15   91.9137758287
                  0.999899082013 -0.00108242646774  0.000100876025542  -10.7644482428  4.30723606576e-10   90.0000152056  1.40826642548e-15   89.4800439213
                 3.50615186837e-15   90.3619447107
                 4.30586649026e-10   89.9883524981  4.30723606606e-10   90.0000152049                1 -8.00445844896e-05  9.53930311222e-16   89.9921464924
                 1.51949877357e-15   89.9602176446
                 1.40983332152e-15   91.7804998163  1.40826202193e-15   89.4798745479  9.53930311167e-16   89.9921464906   0.999996122126 0.000221491341098
                 4.32230323909e-09   112.063791492
                 3.51913392404e-15   91.9137333605  3.50615507716e-15   90.3619873023  1.51949877353e-15   89.9602176448  4.32230311732e-09   112.063789393
                               1 -0.000171091792868
1.11528434532e-06  0.000100958756938  -11.0109367278    0.99989908203 -0.0011073551788  5.44235259412e-10   89.9883289043  1.78145374825e-15   91.5353082841
                 4.44606582168e-15   91.7588546908
                  0.999899082025 -0.00110735517847  0.000100958155555  -11.0068470896  5.44408361693e-10   89.9999891265  1.78017184882e-15   89.7256476044
                 4.43318123671e-15   90.5178721771
                 5.44235259453e-10   89.9883289048  5.44408361725e-10   89.9999891259                1 -7.99120284486e-05  1.20570968607e-15   89.9921448356
                 1.92055371987e-15   89.9602171428
                 1.78145822242e-15   91.5354370084  1.78016742757e-15   89.7255142282  1.205709686e-15   89.9921448338   0.999996104927 0.000222133864812
                 5.39513583376e-09   111.134736964
                 4.44606231521e-15   91.7588209552  4.4331844525e-15   90.5179057484  1.92055371983e-15    89.960217143  5.39513567021e-09   111.134734808
                               1 -0.000171173063942
1.1398894326e-06  0.000101044627322  -11.2583604153   0.999899082042 -0.00113283385971  6.60391153489e-10   89.9883043907  2.16129936334e-15   91.3719389443
                 5.39346596929e-15   91.6555315191
                  0.999899082037 -0.00113283385937  0.000101043961258  -11.2541819876  6.60601197005e-10   89.9999628719  2.16030424521e-15   89.8892755614
                 5.38068477749e-15   90.6217092869
                 6.60391153532e-10   89.9883043911  6.6060119704e-10   89.9999628715                1 -7.97770849223e-05  1.46304374816e-15   89.9921435643
                 2.33045663232e-15   89.9602169769
                 2.16130382596e-15   91.3720453802  2.16029981225e-15    89.889165993  1.46304374808e-15   89.9921435625   0.999996087198 0.000222794312572
                 6.46427505256e-09   110.240383132
                 5.39346246764e-15   91.6555036431  5.38068799789e-15   90.6217368836  2.33045663226e-15   89.9602169771  6.46427487187e-09   110.240381235
                               1 -0.000171256161111
1.16503735034e-06  0.000101134335506  -11.5108037448   0.999899082054 -0.00115887464408  7.79109646208e-10   89.9882791054  2.54953776691e-15   91.2552605852
                 6.36178028412e-15   91.5817200368
                  0.999899082049 -0.00115887464374  0.000101133601929  -11.5065350532  7.79357445039e-10    89.999936269  2.54883579964e-15   90.0060707769
                 6.3491048369e-15   90.6958032634
                 7.79109646254e-10   89.9882791058  7.79357445077e-10   89.9999362686                1 -7.96397222155e-05  1.72605504351e-15   89.9921425087
                 2.74940271248e-15   89.9602170076
                 2.54954222123e-15   91.2553510146  2.5488313584e-15   90.0059781166  1.72605504342e-15   89.9921425068   0.999996068917 0.000223473272242
                 7.52966030657e-09   109.380070017
                 6.36177678595e-15   91.5816963638  6.34910806056e-15   90.6958266126  2.74940271242e-15   89.9602170078  7.52966007567e-09   109.380068029
                               1 -0.000171341126171
1.19074007431e-06  0.000101228047453  -11.7683489843   0.999899082066 -0.00118548993288  9.00447272905e-10   89.9882531165  2.94634944847e-15   91.1677755203
                 7.35146551737e-15   91.5263649368
                  0.999899082061 -0.00118548993253  0.000101227243413  -11.7639885521  9.00733659048e-10    89.999909225  2.94594712421e-15   90.0936007095
                 7.33889817103e-15   90.7513178001
                 9.00447272953e-10   89.9882531168  9.00733659089e-10   89.9999092247                1 -7.94999086904e-05  1.99486882174e-15   89.9921415836
                 3.17759146843e-15   89.9602171656
                 2.94635389652e-15   91.1678539007  2.9459426768e-15   90.0935206742  1.99486882162e-15   89.9921415817   0.999996050065 0.000224171354995
                 8.59134674094e-09    108.55306026
                 7.35146202184e-15    91.526344425  7.33890139711e-15   90.7513379752  3.17759146836e-15   89.9602171657  8.59134646496e-09   108.553058265
                               1 -0.000171428001909
1.21700984451e-06  0.000101325935942  -12.0310784572   0.999899082079 -0.00121269240067  1.02446181618e-09   89.9882264561  3.35192093696e-15   91.0997579527
                 8.36299054933e-15   91.4833196375
                  0.999899082074 -0.00121269240031  0.000101325058368  -12.0266248072  1.02478763995e-09   89.9998816826  3.35182488298e-15   90.1616231688
                 8.35053368896e-15   90.7944509566
                 1.02446181623e-09   89.9882264564  1.02478763999e-09   89.9998816823                1 -7.93576127911e-05  2.26961309565e-15   89.9921407417
                 3.61522680972e-15   89.9602174122
                 3.35192538009e-15   91.0998269374  3.35182043081e-15   90.1615529175  2.26961309553e-15   89.9921407398   0.999996030617 0.000224889196413
                 9.64949289719e-09   107.758552038
                 8.36298705589e-15   91.4833015893  8.35053691689e-15   90.7944686703  3.61522680964e-15   89.9602174123  9.64949261691e-09   107.758550315
                               1 -0.000171516832131
1.24385917092e-06  0.00010142818082  -12.2990744442   0.999899082091 -0.00124049500162  1.15121233342e-09   89.9881991382  3.76644391125e-15   91.0453703062
                 9.39683563731e-15   91.4488940733
                  0.999899082086 -0.00124049500126  0.000101427226515  -12.2945261001  1.15157846384e-09   89.9998536019  3.76666089709e-15   90.2159918936
                 9.3844916877e-15    90.828919747
                 1.15121233347e-09   89.9881991385  1.15157846388e-09   89.9998536016                1 -7.92128030696e-05  2.55041870229e-15   89.9921399545
                 4.06251714452e-15   89.9602177245
                 3.76644835043e-15   91.0454317609  3.76665644115e-15   90.2159294455  2.55041870215e-15   89.9921399526   0.999996010551 0.00022562745763
                 1.0704349217e-08   106.995693509
                 9.39683214556e-15   91.4488779985  9.3844949171e-15   90.8289354968  4.06251714443e-15   89.9602177246  1.07043489339e-08   106.995692006
                               1 -0.000171607661684
1.27130083958e-06  0.000101534969262  -12.5724190778   0.999899082103 -0.0012689109757  1.28075918492e-09   89.9881711667  4.19011484665e-15   91.0008967511
                 1.04534922007e-14   91.4207389756
                  0.999899082098 -0.00126891097533  0.000101533934896  -12.5677745665  1.28116651014e-09   89.9998249527  4.19065178921e-15   90.2604314843
                 1.04412636322e-14   90.8570886307
                 1.28075918498e-09    89.988171167  1.28116651019e-09   89.9998249525                1 -7.90654482121e-05  2.83741936516e-15   89.9921392037
                 4.51967547887e-15   89.9602180879
                 4.19011928256e-15   91.0009520373  4.19064733021e-15   90.2603754035  2.83741936499e-15   89.9921392019   0.999995989842 0.000226386826543
                 1.17562470374e-08   106.263594059
                 1.04534887104e-14   91.4207245167  1.04412668628e-14   90.8571027773  4.51967547876e-15    89.960218088  1.17562467314e-08    106.26359264
                               1 -0.000171700536485
1.29934791855e-06  0.000101646496032  -12.8511942299   0.999899082115 -0.00129795385498  1.41316406262e-09   89.9881425396  4.62313488607e-15   90.9638595395
                 1.15334628334e-14    91.397287607
                   0.99989908211 -0.0012979538546  0.000101645378143  -12.8464520834  1.41361349034e-09   89.9997957101  4.62399885381e-15   90.2974247213
                 1.15213521654e-14   90.8805334203
                 1.41316406268e-09   89.9881425398  1.41361349039e-09   89.9997957099                1 -7.89155170675e-05  3.13075175794e-15   89.9921384771
                 4.98691951807e-15   89.9602184929
                 4.62313931924e-15   90.9639096813  4.6239943923e-15   90.2973739336  3.13075175776e-15   89.9921384753   0.999995968463 0.000227168019082
                 1.28055882231e-08   105.561334081
                 1.15334593443e-14   91.3972744953  1.15213553969e-14   90.8805462337  4.98691951796e-15    89.960218493  1.28055878671e-08    105.56133262
                               1 -0.000171795503547
1.32801376423e-06  0.000101762963761   -13.135481392   0.999899082128 -0.00132763747006  1.5484900195e-09   89.9881132509  5.06570981608e-15   90.9325430116
                 1.26372614234e-14   91.3774549849
                  0.999899082123 -0.00132763746968  0.000101761758743  -13.1306401496  1.5489824774e-09   89.9997658524  5.06690803294e-15   90.3286902821
                 1.26252712267e-14   90.9003447799
                 1.54849001956e-09   89.9881132511  1.54898247745e-09   89.9997658522                1 -7.87629786758e-05  3.43055556958e-15   89.9921377661
                 5.46447177042e-15   89.9602189328
                 5.0657142469e-15   90.9325887986  5.06690356933e-15   90.3286439629  3.43055556938e-15   89.9921377643   0.999995946387 0.000227971780545
                 1.38528358397e-08   104.887974733
                 1.26372579352e-14   91.3774430134  1.2625274459e-14   90.9003564674  5.46447177029e-15   89.9602189329  1.38528354622e-08   104.887973354
                               1 -0.000171892611007
1.35731202768e-06  0.000101884583218   -13.425361548    0.99989908214 -0.00135797595668  1.68680149959e-09   89.9880832924  5.51805009649e-15   90.9057215205
                 1.37654133293e-14   91.3604659304
                  0.999899082135 -0.00135797595629  0.000101883287322  -13.4204197586  1.68733793575e-09   89.9997353598  5.51958994565e-15   90.3554556878
                 1.37535462284e-14    90.917301584
                 1.68680149966e-09   89.9880832926  1.68733793581e-09   89.9997353597                1 -7.86078022984e-05  3.73697357081e-15   89.9921370646
                 5.95255965312e-15   89.9602194031
                 5.51805452528e-15   90.9057635743  5.51958548026e-15   90.3554131905  3.7369735706e-15   89.9921370627   0.999995923585 0.000228798886999
                 1.48985054112e-08   104.242565489
                 1.37654098421e-14   91.3604549361  1.37535494614e-14   90.9173123084  5.95255965298e-15   89.9602194032  1.48985050837e-08   104.242564424
                               1 -0.000171991908157
1.38725666112e-06  0.000102011573603  -13.7209150386   0.999899082152 -0.00138898376242  1.82816436868e-09   89.9880526538  5.9803709196e-15   90.8824961484
                 1.49184555899e-14   91.3457518579
                  0.999899082147 -0.00138898376202  0.00010201018293  -13.7158712632  1.82874575205e-09   89.9997042138  5.98225994714e-15   90.3786210522
                 1.49067142643e-14   90.9319748995
                 1.82816436875e-09    89.988052654  1.82874575211e-09   89.9997042136                1 -7.84499574493e-05  4.05015168215e-15   89.9921363678
                 6.45141560062e-15   89.9602199005
                 5.98037534661e-15    90.882534967  5.98225548024e-15   90.3785818603  4.05015168192e-15    89.992136366   0.999995900027 0.000229650146755
                 1.59431575097e-08   103.624152373
                 1.49184521035e-14   91.3457417102  1.49067174979e-14   90.9319847908  6.45141560047e-15   89.9602199006  1.59431570823e-08   103.624151107
                               1 -0.000172093445473
1.41786192458e-06  0.000102144162835  -14.0222214178   0.999899082164 -0.00142067565363  1.97264594565e-09   89.9880213236  6.45289228702e-15   90.8621926352
                 1.60969371543e-14   91.3328862487
                  0.999899082159 -0.00142067565322  0.00010214267333   -14.017074232  1.97327326649e-09   89.9996723964  6.45513820567e-15   90.3988614151
                 1.608532434e-14   90.9447929559
                 1.97264594572e-09   89.9880213237  1.97327326656e-09   89.9996723962                1 -7.82894139273e-05  4.37023904334e-15   89.9921356723
                 6.96127717528e-15   89.9602204225
                 6.45289671244e-15   90.8622286239  6.45513373748e-15   90.3988251095  4.37023904309e-15   89.9921356705    0.99999587568 0.000230526401918
                 1.69873901156e-08   103.031781714
                 1.60969336686e-14   91.3328768415  1.6085327574e-14   90.9448021195  6.96127717512e-15   89.9602204226  1.69873897064e-08   103.031780622
                               1 -0.000172197274644
1.44914239269e-06  0.000102282587851  -14.3293593017   0.999899082177 -0.00145306672239  2.12031503457e-09   89.9879892891  6.93583909787e-15    90.844295321
                 1.73014191263e-14   91.3215428871
                  0.999899082171 -0.00145306672198  0.000102280995297  -14.3241072987  2.12098930495e-09   89.9996398901  6.93844979079e-15   90.4166929518
                 1.72899376174e-14   90.9560831746
                 2.12031503465e-09   89.9879892893  2.12098930502e-09     89.99963989                1 -7.81261418493e-05  4.69738808445e-15   89.9921349753
                 7.48238718051e-15   89.9602209675
                 6.93584352188e-15    90.844328814  6.93844532148e-15    90.416659188  4.69738808419e-15   89.9921349735   0.999995850511 0.000231428530002
                 1.80318332695e-08   102.464507977
                 1.73014156412e-14   91.3215341328  1.72899408518e-14   90.9560916973  7.48238718034e-15   89.9602209676  1.80318328789e-08   102.464507033
                               1 -0.000172303448603
1.48111296162e-06  0.000102427094909  -14.6424062076   0.999899082189 -0.00148617239377  2.27124195744e-09    89.987956537  7.42944124488e-15   90.8284031024
                 1.85324750214e-14   91.3114680109
                  0.999899082184 -0.00148617239335  0.000102425394925  -14.6370480009  2.27196421167e-09   89.9996066778  7.43242476944e-15     90.43251711
                 1.85211276712e-14   90.9661001831
                 2.27124195752e-09   89.9879565371  2.27196421174e-09   89.9996066777                1 -7.79601116852e-05  5.03175459841e-15   89.9921342746
                 8.0149937764e-15    89.960221534
                 7.42944566762e-15   90.8284343785  7.43242029915e-15   90.4324856008  5.03175459812e-15   89.9921342727   0.999995824483 0.000232357445639
                 1.90771429304e-08   101.921395963
                 1.85324715369e-14   91.3114598366  1.8521130906e-14   90.9661081373  8.01499377622e-15   89.9602215341  1.90771425022e-08   101.921395012
                               1 -0.000172412021563
1.51378885619e-06  0.000102577939903  -14.9614383856   0.999899082201 -0.00152000843314  2.42549858769e-09    89.987923053  7.93393371629e-15   90.8141992933
                 1.97906910319e-14   91.3024612534
                  0.999899082196 -0.0015200084327  0.000102576127934  -14.9559726121  2.42626988284e-09   89.9995727422  7.93729830801e-15   90.4466508055
                 1.97794807544e-14   90.9750449788
                 2.42549858777e-09   89.9879230532  2.42626988291e-09   89.9995727421                1 -7.77912942935e-05  5.37349781519e-15   89.9921335682
                 8.55935059788e-15   89.9602221212
                 7.93393813788e-15   90.8142285875  7.93729383686e-15   90.4466213096  5.37349781488e-15   89.9921335664   0.999995797558 0.000233314102358
                 2.01239966384e-08   101.401525638
                 1.9790687548e-14   91.3024535974  1.97794839894e-14   90.9750524252  8.55935059769e-15   89.9602221214  2.01239962485e-08   101.401524848
                               1 -0.000172523049049
1.54718563709e-06  0.000102735388675  -15.2865306403   0.999899082213 -0.00155459095365  2.58315838438e-09   89.9878888224  8.44955670253e-15   90.8014305252
                 2.10766663009e-14   91.2943622995
                  0.999899082208 -0.00155459095321  0.00010273345999  -15.2809559635  2.58397980079e-09    89.999538066  8.45331077898e-15   90.4593475586
                 2.10655960721e-14   90.9830783414
                 2.58315838447e-09   89.9878888225  2.58397980086e-09   89.9995380659                1 -7.76196609581e-05  5.72278047769e-15   89.9921328548
                 9.11571687556e-15   89.9602227284
                 8.44956112305e-15   90.8014580373  8.45330630709e-15    90.459319871  5.72278047737e-15   89.9921328529   0.999995769698 0.000234299494456
                 2.11730891791e-08   100.903994578
                 2.10766628175e-14   91.2943551096  2.10655993073e-14   90.9830853316  9.11571687535e-15   89.9602227285  2.11730887181e-08   100.903993718
                               1 -0.00017263658793
1.58131920831e-06  0.000102899717339  -15.6177561441   0.999899082225 -0.00158993642398  2.74429642724e-09   89.9878538297  8.97655570678e-15    90.789891675
                 2.23910132042e-14   91.2870413537
                  0.999899082219 -0.00158993642353  0.000102897667023  -15.6120712579  2.74516906898e-09   89.9995026317  8.9807078717e-15   90.4708125906
                 2.23800860632e-14    90.990330412
                 2.74429642733e-09   89.9878538298  2.74516906906e-09   89.9995026316                1 -7.74451834266e-05  6.07976891919e-15   89.9921321329
                 9.68435755909e-15    89.960223355
                 8.97656012632e-15   90.7899175765  8.98070339915e-15   90.4707865358  6.07976891885e-15   89.9921321311   0.999995740858 0.00023531465894
                 2.22251290557e-08   100.427920439
                 2.23910097212e-14    91.287034585  2.23800892987e-14   90.9903369904  9.68435755887e-15   89.9602233552  2.22251286016e-08   100.427919658
                               1 -0.000172752696458
1.61620582471e-06  0.000103071212607  -15.9551862417   0.999899082236 -0.0016260616761  2.90898945236e-09   89.9878180591  9.51518165921e-15   90.7794149021
                 2.37343576386e-14   91.2803922059
                  0.999899082231 -0.00162606167564  0.000103069035556  -15.9493898732  2.90991444781e-09   89.9994664218  9.51974070661e-15   90.4812138025
                 2.37235766894e-14   90.9969076589
                 2.90898945246e-09   89.9878180592  2.90991444789e-09   89.9994664217                1 -7.72678339493e-05  6.44463314258e-15   89.9921314015
                 1.02655434434e-14   89.9602240008
                 9.51518607785e-15   90.7794393413  9.51973623349e-15   90.4811892288  6.44463314221e-15   89.9921313997   0.999995710994 0.000236360677573
                 2.32808357719e-08   99.9724434204
                 2.37343541561e-14   91.2803858196  2.37235799251e-14   90.9969138636  1.02655434432e-14   89.9602240009  2.32808352961e-08   99.9724426619
                               1 -0.000172871434301
1.65186209975e-06  0.000103250172121  -16.2988902444   0.999899082248 -0.00166298391334  3.07731588877e-09    89.987781494  1.00656910344e-14   90.7698615453
                 2.5107339319e-14   91.2743271064
                  0.999899082243 -0.00166298391287  0.000103247863038  -16.2929811582  3.07829439111e-09   89.9994294184  1.00706659529e-14   90.4906898885
                 2.50967077314e-14   91.0028980251
                 3.07731588887e-09   89.9877814941  3.0782943912e-09   89.9994294183                1 -7.70875853201e-05  6.8175469013e-15   89.9921306596
                 1.08595512977e-14   89.9602246654
                 1.00656954522e-14   90.7698846511  1.00706614792e-14   90.4906666644  6.81754690091e-15   89.9921306578   0.999995680059 0.00023743867899
                 2.43409365378e-08   99.5367264143
                 2.51073358369e-14   91.2743210687  2.50967109672e-14   91.0029038893  1.08595512975e-14   89.9602246655  2.43409360714e-08   99.5367257257
                               1 -0.000172992862583
1.68830501344e-06  0.000103436904791  -16.6489352163   0.999899082259 -0.00170072071856  3.24935589578e-09   89.9877441177  1.06283459722e-14   90.7611160447
                 2.65106120804e-14   91.2687729205
                  0.999899082254 -0.00170072071809  0.000103434458177  -16.6429122182  3.25038908356e-09   89.9993916034  1.0633745949e-14   90.4993564224
                 2.65001330916e-14   91.0083747894
                 3.24935589588e-09   89.9877441178  3.25038908366e-09   89.9993916034                1 -7.69044109174e-05  7.1986877821e-15   89.9921299063
                 1.14666639972e-14   89.9602253488
                 1.06283503892e-14     90.76113793  1.06337414749e-14   90.4993344326  7.19868778169e-15   89.9921299044   0.999995648002 0.000238549840909
                 2.54061649099e-08   99.1199574764
                 2.65106085987e-14   91.2687672019  2.65001363275e-14   91.0083803421  1.14666639969e-14   89.9602253489  2.54061644279e-08   99.1199568155
                               1 -0.000173117043923
1.72555192036e-06  0.000103631731133  -17.0053857507    0.99989908227 -0.00173929006254  3.42519140115e-09   89.9877059128  1.1203414401e-14    90.753081322
                 2.79448441891e-14   91.2636682071
                  0.999899082265 -0.00173929006205  0.000103629141282  -16.9992476919  3.42628047884e-09   89.9993529584  1.12092488267e-14   90.5073104814
                 2.7934521105e-14   91.0133994994
                 3.42519140125e-09   89.9877059129  3.42628047894e-09   89.9993529583                1 -7.67182847478e-05  7.58823728963e-15   89.9921291407
                 1.20871706577e-14   89.9602260509
                 1.12034188173e-14   90.7531020863  1.12092443522e-14   90.5072896247  7.5882372892e-15   89.9921291389    0.99999561477 0.000239695392419
                 2.64772588957e-08   98.7213502185
                 2.79448407077e-14   91.2636627816  2.7934524341e-14   91.0134047662  1.20871706574e-14    89.960226051  2.64772583809e-08    98.721349561
                               1 -0.000173244042473
1.76362055799e-06  0.000103834983611   -17.368303738   0.999899082281 -0.00177871031251  3.60490614011e-09   89.9876668614  1.17911701649e-14   90.7456752273
                 2.94107186597e-14   91.2589609702
                  0.999899082276 -0.00177871031201  0.000103832244605  -17.3620495189  3.60605233865e-09   89.9993134645  1.17974486378e-14   90.5146342041
                 2.94005548565e-14   91.0180242287
                 3.60490614022e-09   89.9876668614  3.60605233875e-09   89.9993134645                1 -7.65291814893e-05  7.98638093282e-15   89.9921283622
                 1.27213667736e-14   89.9602267718
                 1.17911745804e-14   90.7456949585  1.1797444163e-14   90.5146143909  7.98638093237e-15   89.9921283603   0.999995580305 0.000240876616353
                 2.75549590111e-08   98.3401435874
                 2.94107151787e-14   91.2589558148  2.94005580926e-14   91.0180292321  1.27213667733e-14   89.9602267719  2.75549584608e-08   98.3401429302
                               1 -0.000173373923961
1.80252905512e-06  0.00010404700699   -17.737748124   0.999899082292 -0.00181900024092  3.78858569524e-09   89.9876269452  1.2391893153e-14   90.7388277745
                 3.09089335798e-14   91.2546069102
                  0.999899082287 -0.00181900024041  0.000104044112692  -17.7313766991  3.78979027264e-09   89.9992731028  1.2398625484e-14   90.5213975567
                 3.08989325051e-14   91.0222933313
                 3.78858569535e-09   89.9876269452  3.78979027275e-09   89.9992731027                1 -7.63370765368e-05  8.39330831328e-15     89.99212757
                 1.33695543584e-14   89.9602275115
                 1.23918975679e-14   90.7388465508  1.23986210089e-14   90.5213787074  8.39330831281e-15   89.9921275681   0.999995544547 0.000242094851731
                 2.86400075224e-08   97.9756026907
                 3.09089300992e-14   91.2546020044  3.08989357413e-14   91.0222980915  1.33695543581e-14   89.9602275116  2.86400069984e-08   97.9756021082
                               1 -0.000173506755732
1.84229594049e-06  0.000104268158677  -18.1137746602   0.999899082302 -0.00186017903437  3.9763175372e-09   89.9875861455  1.30058694328e-14   90.7324789698
                 3.2440202442e-14     91.25056805
                  0.999899082297 -0.00186017903385  0.000104265102723  -18.1072850423  3.97758177914e-09   89.9992318536  1.30130656495e-14   90.5276605072